! Touchstone file exported from HFSS 2023.2.0
!        File:           C:/Users/daniel.skrabacz/Documents/EM working folder/myCPW.aedt
!        Generated:      1:48:45 PM  Apr 29, 2025
!        Design:         005_cpw_with_vias1
!        Project:        myCPW
!        Setup:          Setup1
!        Solution:       Sweep
!
! Variables:
!        $cpw_signal = 1.043mm
!        $d1_thick = 0.762mm
!        $gnd_side_1 = 5.225mm
!        $gnd_side_2 = 5.019mm
!        $half_oz_cu = 0.0175mm
!        $height = 1.5415mm
!        $length = 8.451mm
!        $offset = 0.1mm
!        $one_oz_cu = 0.03556mm
!        $via_height = 1.61262mm
!        $via_radius = 0.381mm
!        $wg_height = 3.5mm
!        $width = 11.811mm
!        offset = 107mm
!
# GHz S DB R 50.000000
! Terminal data exported
! Port[1] = 1
! Port[2] = 2
0.7                            -36.8252146801158 -80.129528482536 -0.0280308105366459 -35.7517054648403 -0.028030810536642 -35.7517054648402 -36.4272516794199 -167.877221802634 
! Gamma         0.12658675535786 22.8626008540534 0.125921995944921 27.9743954225213 
! Port Impedance         50               0                50               0                
0.71                           -36.8704128055951 -82.0397107831954 -0.0284022060818471 -36.2617519663384 -0.0284022060818539 -36.2617519663384 -36.4508666166274 -167.083453543319 
! Gamma         0.12777937760735 23.1885609743308 0.127225839226035 28.3734548813346 
! Port Impedance         50               0                50               0                
0.72                           -36.9115412146755 -83.978569335437 -0.0287625853114809 -36.7718216480576 -0.028762585311507 -36.7718216480575 -36.4706480744628 -166.268702643771 
! Gamma         0.128969367236663 23.5145168770689 0.12852677808939 28.7725165742509 
! Port Impedance         50               0                50               0                
0.73                           -36.9482795853871 -85.9452133032423 -0.0291129744971676 -37.2819143159034 -0.0291129744971996 -37.2819143159033 -36.4863760644905 -165.433947761801 
! Gamma         0.130156647768045 23.840468672446  0.129824867368808 29.1715800856071 
! Port Impedance         50               0                50               0                
0.74                           -36.9803099583388 -87.9385617256189 -0.0294543062361228 -37.7920297425132 -0.0294543062361586 -37.792029742513 -36.4978369321583 -164.580293730875 
! Gamma         0.131341151825643 24.1664164701995 0.131120159686094 29.5706450333057 
! Port Impedance         50               0                50               0                
0.75                           -37.0073198566798 -89.9573388023828 -0.0297874300740297 -38.3021676763984 -0.0297874300740752 -38.3021676763981 -36.5048254123174 -163.708970446491 
! Gamma         0.132522820530828 24.4923603793183 0.132412705505025 29.9697110663666 
! Port Impedance         50               0                50               0                
0.76                           -37.0290056264393 -92.0000717725296 -0.0301131217291178 -38.812327849142 -0.0301131217291691 -38.8123278491418 -36.5071467194391 -162.821330062037 
! Gamma         0.133701602926002 24.8183005078019 0.133702553195752 30.3687778626702 
! Port Impedance         50               0                50               0                
0.77                           -37.0450759416998 -94.0650917347081 -0.0304320911261002 -39.3225099810515 -0.030432091126164 -39.3225099810512 -36.5046186354381 -161.918842403523 
! Gamma         0.134877455426645 25.1442369624343 0.134989749107298 30.7678451268587 
! Port Impedance         50               0                50               0                
0.78                           -37.0552554063338 -96.1505377039775 -0.0307449894140579 -39.8327137855819 -0.0307449894141237 -39.8327137855816 -36.497073554316 -161.003088553946 
! Gamma         0.136050341300838 25.470169848607  0.136274337646004 31.1669125883907 
! Port Impedance         50               0                50               0                
0.79                           -37.0592881725512 -98.2543641219501 -0.0310524151139348 -40.34293897278  -0.0310524151140006 -40.3429389727796 -36.4843604403314 -160.075752605523 
! Gamma         0.137220230175715 25.7960992701627 0.137556361358192 31.5659799997353 
! Port Impedance         50               0                50               0                
0.8                            -37.0569414873014 -100.374351940432 -0.0313549195181565 -40.8531852519456 -0.0313549195182252 -40.8531852519452 -36.4663466553239 -159.138611630032 
! Gamma         0.138387097570019 26.1220253292768 0.138835861015486 31.965047134694  
! Port Impedance         50               0                50               0                
0.81                           -37.048009071368 -102.508123284189 -0.0316530114456104 -41.3634523336689 -0.0316530114456782 -41.3634523336685 -36.4429196113693 -158.193523971919 
! Gamma         0.139550924452093 26.4479481263514 0.140112875701517 32.3641137868484 
! Port Impedance         50               0                50               0                
0.82                           -37.032314233684 -104.653159571838 -0.0319471614393108 -41.873739931368 -0.0319471614393815 -41.8737399313676 -36.4139882072219 -157.24241602328 
! Gamma         0.140711696822394 26.7738677599364 0.141387442898968 32.7631797681107 
! Port Impedance         50               0                50               0                
0.83                           -37.0097126254693 -106.80682284095 -0.0322378054810454 -42.3840477624279 -0.0322378054811141 -42.3840477624275 -36.3794840110325 -156.287267691558 
! Gamma         0.141869405319671 27.0997843266765 0.142659598576031 33.1622449073831 
! Port Impedance         50               0                50               0                
0.84                           -36.980094545615 -108.966379892185 -0.0325253482859679 -42.8943755490203 -0.0325253482860396 -42.8943755490198 -36.3393621575323 -155.330096817147 
! Gamma         0.143024044850064 27.4256979212546 0.143929377271571 33.5613090493067 
! Port Impedance         50               0                50               0                
0.85                           -36.9433867202264 -111.129028745668 -0.0328101662312606 -43.4047230186701 -0.0328101662313342 -43.4047230186696 -36.2936019350258 -154.372942836459 
! Gamma         0.144175614237998 27.7516086363776 0.145196812178356 33.9603720531063 
! Port Impedance         50               0                50               0                
0.86                           -36.8995534950682 -113.291926799095 -0.0330926099649144 -43.9150899046193 -0.0330926099649899 -43.9150899046188 -36.2422070458796 -153.41785001422 
! Gamma         0.145324115898246 28.0775165627454 0.146461935223941 34.3594337915099 
! Port Impedance         50               0                50               0                
0.87                           -36.8485973989945 -115.452219998509 -0.0333730067344206 -44.425475946031 -0.0333730067344951 -44.4254759460305 -36.1852055333148 -152.466850585094 
! Gamma         0.146469555528031 28.4034217890519 0.147724777148812 34.7584941497403 
! Port Impedance         50               0                50               0                
0.88                           -36.7905590583152 -117.607072285046 -0.0336516624694796 -44.9358808880662 -0.0336516624695551 -44.9358808880657 -36.1226493767924 -151.521948148278 
! Gamma         0.147611941818378 28.7293244019927 0.148985367581424 35.1575530245946 
! Port Impedance         50               0                50               0                
0.89                           -36.7255164651068 -119.753694567798 -0.0339288636482855 -45.446304481862 -0.0339288636483591 -45.4463044818615 -36.0546137676616 -150.585101649194 
! Gamma         0.148751286183861 29.0552244862715 0.150243735110097 35.5566103235672 
! Port Impedance         50               0                50               0                
0.9                            -36.6535836253689 -121.889372495267 -0.0342048789729227 -45.956746484432 -0.0342048789729963 -45.9567464844315 -35.9811960855547 -149.658210260424 
! Gamma         0.149887602509807 29.3811221246205 0.15149990735145 35.9556659640506 
! Port Impedance         50               0                50               0                
0.91                           -36.5749086342332 -124.011492353961 -0.0344799608760533 -46.4672066585072 -0.034479960876124 -46.4672066585068 -35.9025146038602 -148.743099440928 
! Gamma         0.151020906916121 29.7070173978259 0.152753911015442 36.3547198725781 
! Port Impedance         50               0                50               0                
0.92                           -36.4896712439659 -126.11756450834 -0.0347543468782038 -46.9776847723315 -0.0347543468782783 -46.9776847723311 -35.8187069591361 -147.841508410247 
! Gamma         0.152151217536893 30.0329103847616 0.154005771966849 36.7537719841332 
! Port Impedance         50               0                50               0                
0.93                           -36.3980800052494 -128.205243905552 -0.0350282608124611 -47.4881805994236 -0.0350282608125327 -47.4881805994231 -35.7299284242915 -146.955079225274 
! Gamma         0.153278554314998 30.3588011624222 0.155255515283268 37.1528222414997 
! Port Impedance         50               0                50               0                
0.94                           -36.3003690725196 -130.272347293143 -0.0353019139312358 -47.9986939183143 -0.0353019139313026 -47.9986939183138 -35.636350028621 -146.085347593905 
! Gamma         0.154402938810903 30.6846898059571 0.156503165309671 37.5518705946561 
! Port Impedance         50               0                50               0                
0.95                           -36.1967947697085 -132.316866930494 -0.0355755059080795 -48.509224512267 -0.0355755059081396 -48.5092245122665 -35.538156569285 -145.233735505178 
! Gamma         0.155524394024816 31.0105763887206 0.157748745709535 37.9509170002122 
! Port Impedance         50               0                50               0                
0.96                           -36.0876320136212 -134.336980706616 -0.0358492257457311 -49.0197721689872 -0.0358492257458008 -49.0197721689867 -35.4355445586517 -144.401545702017 
! Gamma         0.156642944231621 31.3364609823041 0.158992279512622 38.3499614208968 
! Port Impedance         50               0                50               0                
0.97                           -35.9731706887747 -136.331058700956 -0.0361232526004221 -49.5303366803258 -0.0361232526004908 -49.5303366803253 -35.3287201502174 -143.589957972625 
! Gamma         0.157758614827677 31.662343656592  0.160233789159601 38.7490038250609 
! Port Impedance         50               0                50               0                
0.98                           -35.853712060451 -138.297666334151 -0.0363977565311074 -50.04091784198  -0.0363977565311664 -50.0409178419795 -35.2178970827991 -142.800027191868 
! Gamma         0.158871432188957 31.9882244798035 0.16147329654349 39.1480441862344 
! Port Impedance         50               0                50               0                
0.99                           -35.729565302808 -140.235564347742 -0.0366728991814212 -50.5515154531949 -0.036672899181487 -50.5515154531944 -35.1032946786513 -142.032683006017 
! Gamma         0.159981423539825 32.314103518536  0.162710823048146 39.5470824827034 
! Port Impedance         50               0                50               0                
1                              -35.6010442069828 -142.14370592317 -0.0369488344011972 -51.0621293164683 -0.036948834401266 -51.0621293164678 -34.9851359263491 -141.288731023722 
! Gamma         0.161088616831724 32.6399808378224 0.163946389583888 39.9461186971222 
! Port Impedance         50               0                50               0                
1.01                           -35.4684641211528 -144.021231300378 -0.0372257088135381 -51.5727592372599 -0.037225708813601 -51.5727592372595 -34.8636456740231 -140.568855353637 
! Gamma         0.162193040631362 32.9658565011692 0.165180016620398 40.3451528161482 
! Port Impedance         50               0                50               0                
1.02                           -35.3321391612596 -145.867460285172 -0.0375036623328491 -52.0834050237075 -0.0375036623329072 -52.0834050237071 -34.7390489530932 -139.873622314321 
! Gamma         0.163294724017625 33.2917305706109 0.166411724217034 40.7441848301055 
! Port Impedance         50               0                50               0                
1.03                           -35.1923797182608 -147.681883044352 -0.0377828286386504 -52.5940664863495 -0.0377828286387075 -52.594066486349 -34.6115694472673 -139.203485134689 
! Gamma         0.164393696486778 33.6176031067609 0.167641532050673 41.1432147326772 
! Port Impedance         50               0                50               0                
1.04                           -35.0494902759198 -149.464149581204 -0.0380633356093764 -53.1047434378562 -0.0380633356094268 -53.1047434378558 -34.4814281164576 -138.558789462375 
! Gamma         0.165489987865478 33.9434741688461 0.1688694594413  41.5422425206054 
! Port Impedance         50               0                50               0                
1.05                           -34.9037675426324 -151.21405826394 -0.0383453057199492 -53.6154356927698 -0.0383453057199995 -53.6154356927694 -34.3488419805748 -137.939779502155 
! Gamma         0.166583628230908 34.2693438147681 0.170095525375357 41.9412681934315 
! Port Impedance         50               0                50               0                
1.06                           -34.7554988918839 -152.931543749874 -0.038628856406578 -54.1261430672529 -0.0386288564066245 -54.1261430672525 -34.2140230639997 -137.346604615779 
! Gamma         0.167674647837807 34.5952121011411 0.171319748527101 42.3402917532407 
! Port Impedance         50               0                50               0                
1.07                           -34.6049610987315 -154.616664611477 -0.0389141004017365 -54.6368653788463 -0.038914100401784 -54.636865378846 -34.0771774979678 -136.779326227326 
! Gamma         0.168763077051761 34.9210790833389 0.172542147278053 42.739313204427  
! Port Impedance         50               0                50               0                
1.08                           -34.4524193541734 -156.269590929726 -0.0392011460421377 -55.1476024462364 -0.0392011460421871 -55.147602446236 -33.9385047751673 -136.237924893295 
! Gamma         0.169848946288426 35.2469448155392 0.173762739734639 43.1383325534839 
! Port Impedance         50               0                50               0                
1.09                           -34.2981265353533 -157.890592078236 -0.0394900975520187 -55.6583540890313 -0.0394900975520672 -55.6583540890309 -33.798197148534 -135.722307413225 
! Gamma         0.17093228595825 35.5728093507677 0.174981543744206 43.5373498088    
! Port Impedance         50               0                50               0                
1.1                            -34.1423227070282 -159.480024880098 -0.0397810553040654 -56.1691201275469 -0.0397810553041178 -56.1691201275466 -33.6564391644978 -135.232313873858 
! Gamma         0.172013126416337 35.8986727409384 0.176198576909478 43.9363649804777 
! Port Impedance         50               0                50               0                
1.11                           -33.9852348284792 -161.038322280101 -0.0400741160598454 -56.6799003826013 -0.040074116059888 -56.679900382601 -33.5134073197518 -134.767724537026 
! Gamma         0.173091497917069 36.2245350368954 0.177413856601611 44.335378080157  
! Port Impedance         50               0                50               0                
1.12                           -33.8270766397891 -162.565982638799 -0.0403693731915399 -57.1906946753184 -0.0403693731915796 -57.190694675318 -33.3692698299057 -134.328266497957 
! Gamma         0.174167430573178 36.5503962884505 0.178627399971913 44.7343891208608 
! Port Impedance         50               0                50               0                
1.13                           -33.6680487019881 -164.063559722728 -0.0406669168867063 -57.7015028269402 -0.0406669168867412 -57.7015028269399 -33.2241864980849 -133.913620056241 
! Gamma         0.175240954318911 36.8762565444274 0.179839223962362 45.1333981168453 
! Port Impedance         50               0                50               0                
1.14                           -33.5083385667605 -165.531653437007 -0.0409668343372649 -58.2123246586477 -0.0409668343373056 -58.2123246586474 -33.0783086715857 -133.523424755903 
! Gamma         0.176312098877065 37.2021158526908 0.181049345314991 45.5324050834685 
! Port Impedance         50               0                50               0                
1.15                           -33.3481210530238 -166.970901322864 -0.0412692099143378 -58.7231599913898 -0.0412692099143717 -58.7231599913895 -32.9317792750072 -133.157285063743 
! Gamma         0.17738089372951 37.5279742601881 0.182257780580293 45.9314100370571 
! Port Impedance         50               0                50               0                
1.16                           -33.1875586096128 -168.381970823141 -0.0415741253297983 -59.2340086457198 -0.041574125329836 -59.2340086457195 -32.7847329088121 -132.814775666271 
! Gamma         0.178447368091022 37.8538318129825 0.183464546124634 46.3304129947981 
! Port Impedance         50               0                50               0                
1.17                           -33.02680174536  -169.765552303066 -0.0418816597859251 -59.7448704416404 -0.0418816597859561 -59.7448704416402 -32.6372960029413 -132.495446375163 
! Gamma         0.179511550886143 38.1796885562841 0.184669658136852 46.7294139746281 
! Port Impedance         50               0                50               0                
1.18                           -32.8659895099935 -171.122352801588 -0.0421918901138448 -60.2557451984555 -0.0421918901138807 -60.2557451984552 -32.4895870158956 -132.19882663917 
! Gamma         0.180573470728819 38.5055445344869 0.18587313263406 47.128412995137  
! Port Impedance         50               0                50               0                
1.19                           -32.7052500113599 -172.453090479469 -0.0425048909019222 -60.766632734629 -0.04250489090196 -60.7666327346287 -32.3417166705337 -131.924429667098 
! Gamma         0.181633155904657 38.8313997911942 0.187074985466771 47.5274100754699 
! Port Impedance         50               0                50               0                
1.2                            -32.544700956496 -173.758489723983 -0.0428207346146602 -61.2775328676511 -0.0428207346146941 -61.2775328676508 -32.1937882187083 -131.671756171705 
! Gamma         0.182690634355517 39.1572543692524 0.18827523232333 47.9264052352556 
! Port Impedance         50               0                50               0                
1.21                           -32.3844502059541 -175.039276866039 -0.043139491703024 -61.7884454139107 -0.0431394917030569 -61.7884454139105 -32.0458977277232 -131.440297748528 
! Gamma         0.18374593366632 39.4831083107799 0.189473888733827 48.32539849452   
! Port Impedance         50               0                50               0                
1.22                           -32.2245963325174 -176.296176463247 -0.0434612307067902 -62.2993701885744 -0.0434612307068144 -62.2993701885741 -31.8981343824402 -131.229539906694 
! Gamma         0.184799081053878 39.8089616571879 0.190670970073468 48.7243898736194 
! Port Impedance         50               0                50               0                
1.23                           -32.0652291770122 -177.529908101759 -0.0437860183494991 -62.8103070054711 -0.0437860183495272 -62.8103070054709 -31.7505807976651 -131.038964770929 
! Gamma         0.185850103357521 40.1348144492157 0.19186649156548 49.1233793931753 
! Port Impedance         50               0                50               0                
1.24                           -31.906430395314 -178.741183670028 -0.0441139196266833 -63.3212556769835 -0.0441139196267066 -63.3212556769833 -31.603313336193 -130.868053475414 
! Gamma         0.186899027031463 40.4606667269502 0.193060468283614 49.5223670740124 
! Port Impedance         50               0                50               0                
1.25                           -31.748273991879 -179.930705059075 -0.0444449978877099 -63.8322160139439 -0.0444449978877341 -63.8322160139437 -31.4564024285903 -130.716288270852 
! Gamma         0.18794587813869 40.7865185298508 0.194252915154263 49.9213529371104 
! Port Impedance         50               0                50               0                
1.26                           -31.5908268361943 178.900837754342 -0.0447793149119032 -64.3431878255365 -0.0447793149119303 -64.3431878255363 -31.3099128914219 -130.583154366386 
! Gamma         0.188990682346247 41.112369896776  0.195443846958273 50.3203370035488 
! Port Impedance         50               0                50               0                
1.27                           -31.4341491594566 177.752768282776 -0.0451169309792214 -64.8541709192043 -0.0451169309792515 -64.8541709192041 -31.1639042412018 -130.468141527797 
! Gamma         0.190033464921851 41.4382208660002 0.196633278332476 50.7193192944627 
! Port Impedance         50               0                50               0                
1.28                           -31.2782950295679 176.624424799808 -0.045457904935946 -65.3651651005613 -0.0454579049359702 -65.3651651005611 -31.0184310018561 -130.37074545294 
! Gamma         0.191074250731633 41.7640714752375 0.197821223770932 51.118299831004  
! Port Impedance         50               0                50               0                
1.29                           -31.123312803186 175.515161344097 -0.0458022942557475 -65.8761701733089 -0.0458022942557718 -65.8761701733087 -30.8735430039365 -130.290468944574 
! Gamma         0.192113064238949 42.0899217616644 0.199007697626009 51.5172786343016 
! Port Impedance         50               0                50               0                
1.3                            -30.9692455541086 174.424348488454 -0.046150155096453 -66.3871859391578 -0.0461501550964802 -66.3871859391576 -30.729285674211 -130.226822899851 
! Gamma         0.193149929504184 42.4157717619329 0.20019271410924 51.916255725428  
! Port Impedance         50               0                50               0                
1.31                           -30.8161314777115 173.351373903811 -0.0465015423528143 -66.8982121977536 -0.0465015423528327 -66.8982121977535 -30.5857003146057 -130.179327134648 
! Gamma         0.194184870185372 42.7416215121953 0.201376287292026 52.3152311253701 
! Port Impedance         50               0                50               0                
1.32                           -30.6640042715174 172.295642745175 -0.0468565097055479 -67.4092487466068 -0.0468565097055663 -67.4092487466066 -30.4428243697571 -130.147511059775 
! Gamma         0.19521790953963 43.0674710481203 0.202558431106222 52.7142048549995 
! Port Impedance         50               0                50               0                
1.33                           -30.5128934922536 171.256577883904 -0.0472151096669442 -67.9202953810268 -0.0472151096669606 -67.9202953810267 -30.3006916826872 -130.13091422496 
! Gamma         0.196249070425305 43.393320404906  0.203739159344595 53.1131769350492 
! Port Impedance         50               0                50               0                
1.34                           -30.3628248899766 170.233620008237 -0.0475773936232476 -68.4313518940605 -0.047577393623267 -68.4313518940604 -30.1593327383204 -130.12908674527 
! Gamma         0.197278375304714 43.7191696173002 0.204918485661203 53.5121473860887 
! Port Impedance         50               0                50               0                
1.35                           -30.2138207200074 169.226227611557 -0.0479434118740352 -68.9424180764334 -0.0479434118740594 -68.9424180764333 -30.0187748947376 -130.141589623499 
! Gamma         0.198305846247459 44.0450187196155 0.206096423571682 53.911116228508  
! Port Impedance         50               0                50               0                
1.36                           -30.065900033543 168.233876885736 -0.0483132136688307 -69.4534937164955 -0.0483132136688453 -69.4534937164954 -29.8790426022033 -130.167994980888 
! Gamma         0.199331504934252 44.3708677457419 0.207272986453509 54.3100834824974 
! Port Impedance         50               0                50               0                
1.37                           -29.9190789478942 167.25606153488  -0.0486868472410532 -69.9645786001701 -0.0486868472410745 -69.96457860017  -29.7401576101219 -130.207886207461 
! Gamma         0.200355372661161 44.6967167291613 0.208448187546191 54.7090491680313 
! Port Impedance         50               0                50               0                
1.38                           -29.7733708973514 166.292292523022 -0.049064359839636 -70.475672510906 -0.0490643598396496 -70.4756725109059 -29.6021391621691 -130.260858042195 
! Gamma         0.201377470344236 45.0225657029636 0.209622039951453 55.1080133048554 
! Port Impedance         50               0                50               0                
1.39                           -29.6287868657139 165.342097767549 -0.0494457977582708 -70.9867752296332 -0.0494457977582844 -70.9867752296331 -29.4650041799195 -130.326516592303 
! Gamma         0.202397818524493 45.3484146998567 0.210794556633387 55.5069759124763 
! Port Impedance         50               0                50               0                
1.4                            -29.4853356015231 164.405021788789 -0.0498312063626094 -71.4978865347214 -0.0498312063626239 -71.4978865347214 -29.3287674353466 -130.404479299937 
! Gamma         0.203416437373175 45.6742637521779 0.211965750418616 55.9059370101475 
! Port Impedance         50               0                50               0                
1.41                           -29.3430238170354 163.480625324717 -0.0502206301154474 -72.009006201942 -0.0502206301154658 -72.0090062019419 -29.1934417126109 -130.494374863803 
! Gamma         0.204433346697251 46.0001128919092 0.213135633996447 56.3048966168631 
! Port Impedance         50               0                50               0                
1.42                           -29.2018563719533 162.568484918637 -0.0506141126000887 -72.5201340044322 -0.0506141126001022 -72.5201340044321 -29.0590379595843 -130.59584312239 
! Gamma         0.205448565945149 46.3259621506854 0.21430421991904 56.7038547513498 
! Port Impedance         50               0                50               0                
1.43                           -29.0618364429033 161.668192486557 -0.0510116965419302 -73.0312697126626 -0.0510116965419389 -73.0312697126625 -28.9255654295731 -130.708534904756 
! Gamma         0.206462114212642 46.6518115598064 0.215471520601602 57.1028114320589 
! Port Impedance         50               0                50               0                
1.44                           -28.9229656796147 160.779354870082 -0.0514134238284619 -73.5424130944078 -0.0514134238284765 -73.5424130944077 -28.7930318137159 -130.832111854202 
! Gamma         0.207474010248899 46.977661150246  0.216637548322588 57.5017666771638 
! Port Impedance         50               0                50               0                
1.45                           -28.7852443487167 159.901593379776 -0.0518193355277608 -74.0535639147184 -0.0518193355277715 -74.0535639147183 -28.6614433645312 -130.966246229511 
! Gamma         0.208484272462633 47.3035109526628 0.217802315223954 57.9007205045533 
! Port Impedance         50               0                50               0                
1.46                           -28.6486714660232 159.034543333216 -0.0522294719055229 -74.5647219358968 -0.0522294719055336 -74.5647219358967 -28.5308050110922 -131.11062068792 
! Gamma         0.209492918928347 47.6293609974098 0.21896583331142 58.29967293183   
! Port Impedance         50               0                50               0                
1.47                           -28.5132449181343 158.177853591311 -0.0526438724408027 -75.0758869174747 -0.0526438724408114 -75.0758869174747 -28.4011204662937 -131.264928053477 
! Gamma         0.210499967392654 47.9552113145396 0.220128114454789 58.6986239763077 
! Port Impedance         50               0                50               0                
1.48                           -28.3789615741357 157.331186095911 -0.0530625758404583 -75.5870586161937 -0.0530625758404651 -75.5870586161936 -28.2723923266697 -131.428871073978 
! Gamma         0.211505435280608 48.2810619338194 0.221289170388297 59.0975736550084 
! Port Impedance         50               0                50               0                
1.49                           -28.2458173881317 156.494215411183 -0.0534856200524817 -76.098236785987 -0.0534856200524875 -76.098236785987 -28.1446221652038 -131.602162169311 
! Gamma         0.212509339702094 48.6069128847336 0.222449012710995 59.4965219846654 
! Port Impedance         50               0                50               0                
1.5                            -28.1138074933012 155.666628270849 -0.0539130422781968 -76.6094211779651 -0.0539130422782133 -76.609421177965 -28.0178106175597 -131.784523173637 
! Gamma         0.213511697458212 48.9327641964927 0.223607652887207 59.8954689817179 
! Port Impedance         50               0                50               0                